VARIABLES = "X", "Y", "VELOCITY_X", "VELOCITY_Y", "PRESSURE"
ZONE I=128, J=64, F=POINT
0.0078125 0.0078125 1.05496e-06 -7.05362e-07 3.31511e-05
0.0234375 0.0078125 3.20778e-06 -1.09957e-06 3.31459e-05
0.0390625 0.0078125 5.40924e-06 -1.16459e-06 3.31338e-05
0.0546875 0.0078125 7.61284e-06 -1.16798e-06 3.31146e-05
0.0703125 0.0078125 9.80654e-06 -1.16201e-06 3.30884e-05
0.0859375 0.0078125 1.1986e-05 -1.15378e-06 3.30551e-05
0.101563 0.0078125 1.41484e-05 -1.1441e-06 3.30146e-05
0.117188 0.0078125 1.62911e-05 -1.13318e-06 3.29669e-05
0.132813 0.0078125 1.84118e-05 -1.12115e-06 3.29118e-05
0.148438 0.0078125 2.05085e-05 -1.10815e-06 3.28494e-05
0.164063 0.0078125 2.25796e-05 -1.09432e-06 3.27794e-05
0.179688 0.0078125 2.46235e-05 -1.07981e-06 3.27017e-05
0.195313 0.0078125 2.66391e-05 -1.06474e-06 3.26163e-05
0.210938 0.0078125 2.86254e-05 -1.04923e-06 3.25229e-05
0.226563 0.0078125 3.05819e-05 -1.03341e-06 3.24215e-05
0.242188 0.0078125 3.25079e-05 -1.01738e-06 3.23118e-05
0.257813 0.0078125 3.44034e-05 -1.00122e-06 3.21937e-05
0.273438 0.0078125 3.62681e-05 -9.85023e-07 3.2067e-05
0.289063 0.0078125 3.81021e-05 -9.6884e-07 3.19315e-05
0.304688 0.0078125 3.99055e-05 -9.5273e-07 3.17869e-05
0.320313 0.0078125 4.16786e-05 -9.36735e-07 3.16331e-05
0.335938 0.0078125 4.34218e-05 -9.20887e-07 3.14699e-05
0.351563 0.0078125 4.51353e-05 -9.05207e-07 3.1297e-05
0.367188 0.0078125 4.68197e-05 -8.89711e-07 3.11141e-05
0.382813 0.0078125 4.84753e-05 -8.74405e-07 3.09211e-05
0.398438 0.0078125 5.01025e-05 -8.59291e-07 3.07175e-05
0.414063 0.0078125 5.17019e-05 -8.44365e-07 3.05033e-05
0.429688 0.0078125 5.32738e-05 -8.29619e-07 3.02781e-05
0.445313 0.0078125 5.48187e-05 -8.15041e-07 3.00415e-05
0.460938 0.0078125 5.63368e-05 -8.00618e-07 2.97934e-05
0.476563 0.0078125 5.78286e-05 -7.86334e-07 2.95334e-05
0.492188 0.0078125 5.92944e-05 -7.72172e-07 2.92612e-05
0.507813 0.0078125 6.07344e-05 -7.58113e-07 2.89765e-05
0.523438 0.0078125 6.21488e-05 -7.44139e-07 2.8679e-05
0.539063 0.0078125 6.35379e-05 -7.3023e-07 2.83684e-05
0.554688 0.0078125 6.49018e-05 -7.1637e-07 2.80443e-05
0.570313 0.0078125 6.62407e-05 -7.02539e-07 2.77064e-05
0.585938 0.0078125 6.75545e-05 -6.88722e-07 2.73543e-05
0.601563 0.0078125 6.88434e-05 -6.74903e-07 2.69878e-05
0.617188 0.0078125 7.01074e-05 -6.61067e-07 2.66064e-05
0.632813 0.0078125 7.13465e-05 -6.47203e-07 2.62098e-05
0.648438 0.0078125 7.25605e-05 -6.333e-07 2.57976e-05
0.664063 0.0078125 7.37496e-05 -6.19347e-07 2.53696e-05
0.679688 0.0078125 7.49135e-05 -6.05339e-07 2.49253e-05
0.695313 0.0078125 7.60523e-05 -5.91267e-07 2.44643e-05
0.710938 0.0078125 7.71658e-05 -5.77128e-07 2.39864e-05
0.726563 0.0078125 7.82538e-05 -5.62918e-07 2.34912e-05
0.742188 0.0078125 7.93163e-05 -5.48635e-07 2.29783e-05
0.757813 0.0078125 8.03531e-05 -5.34277e-07 2.24473e-05
0.773438 0.0078125 8.13642e-05 -5.19844e-07 2.1898e-05
0.789063 0.0078125 8.23493e-05 -5.05335e-07 2.133e-05
0.804688 0.0078125 8.33084e-05 -4.90753e-07 2.0743e-05
0.820313 0.0078125 8.42412e-05 -4.76101e-07 2.01366e-05
0.835938 0.0078125 8.51478e-05 -4.61381e-07 1.95106e-05
0.851563 0.0078125 8.60279e-05 -4.46598e-07 1.88645e-05
0.867188 0.0078125 8.68814e-05 -4.3176e-07 1.81982e-05
0.882813 0.0078125 8.77083e-05 -4.16875e-07 1.75114e-05
0.898438 0.0078125 8.85085e-05 -4.01953e-07 1.68038e-05
0.914063 0.0078125 8.92819e-05 -3.87005e-07 1.60752e-05
0.929688 0.0078125 9.00285e-05 -3.72047e-07 1.53253e-05
0.945313 0.0078125 9.07482e-05 -3.57095e-07 1.45541e-05
0.960938 0.0078125 9.14412e-05 -3.42167e-07 1.37613e-05
0.976563 0.0078125 9.21074e-05 -3.27285e-07 1.29469e-05
0.992188 0.0078125 9.2747e-05 -3.1247e-07 1.21108e-05
1.00781 0.0078125 9.33602e-05 -2.97748e-07 1.1253e-05
1.02344 0.0078125 9.39471e-05 -2.83145e-07 1.03736e-05
1.03906 0.0078125 9.45079e-05 -2.68688e-07 9.47257e-06
1.05469 0.0078125 9.50431e-05 -2.54404e-07 8.55011e-06
1.07031 0.0078125 9.55529e-05 -2.40323e-07 7.60641e-06
1.08594 0.0078125 9.60378e-05 -2.26473e-07 6.64171e-06
1.10156 0.0078125 9.64983e-05 -2.12884e-07 5.65632e-06
1.11719 0.0078125 9.69348e-05 -1.99582e-07 4.65059e-06
1.13281 0.0078125 9.7348e-05 -1.86595e-07 3.62492e-06
1.14844 0.0078125 9.77384e-05 -1.73947e-07 2.57978e-06
1.16406 0.0078125 9.81069e-05 -1.61663e-07 1.51568e-06
1.17969 0.0078125 9.8454e-05 -1.49764e-07 4.33153e-07
1.19531 0.0078125 9.87806e-05 -1.38268e-07 -6.67202e-07
1.21094 0.0078125 9.90875e-05 -1.27191e-07 -1.78476e-06
1.22656 0.0078125 9.93754e-05 -1.16546e-07 -2.91888e-06
1.24219 0.0078125 9.96452e-05 -1.06342e-07 -4.06888e-06
1.25781 0.0078125 9.98978e-05 -9.65871e-08 -5.23406e-06
1.27344 0.0078125 0.000100134 -8.72838e-08 -6.41373e-06
1.28906 0.0078125 0.000100355 -7.84325e-08 -7.60716e-06
1.30469 0.0078125 0.000100561 -7.00307e-08 -8.81365e-06
1.32031 0.0078125 0.000100753 -6.20731e-08 -1.00325e-05
1.33594 0.0078125 0.000100932 -5.45519e-08 -1.1263e-05
1.35156 0.0078125 0.0001011 -4.74571e-08 -1.25044e-05
1.36719 0.0078125 0.000101256 -4.07769e-08 -1.37561e-05
1.38281 0.0078125 0.000101401 -3.44979e-08 -1.50175e-05
1.39844 0.0078125 0.000101537 -2.86052e-08 -1.62879e-05
1.41406 0.0078125 0.000101663 -2.30832e-08 -1.75667e-05
1.42969 0.0078125 0.000101781 -1.79155e-08 -1.88533e-05
1.44531 0.0078125 0.000101891 -1.30851e-08 -2.01473e-05
1.46094 0.0078125 0.000101995 -8.57493e-09 -2.1448e-05
1.47656 0.0078125 0.000102091 -4.368e-09 -2.2755e-05
1.49219 0.0078125 0.000102182 -4.47393e-10 -2.40678e-05
1.50781 0.0078125 0.000102267 3.20347e-09 -2.5386e-05
1.52344 0.0078125 0.000102346 6.60069e-09 -2.67093e-05
1.53906 0.0078125 0.000102421 9.75981e-09 -2.80371e-05
1.55469 0.0078125 0.000102492 1.26957e-08 -2.93693e-05
1.57031 0.0078125 0.000102559 1.54227e-08 -3.07053e-05
1.58594 0.0078125 0.000102623 1.79542e-08 -3.20451e-05
1.60156 0.0078125 0.000102683 2.03029e-08 -3.33882e-05
1.61719 0.0078125 0.000102741 2.24809e-08 -3.47344e-05
1.63281 0.0078125 0.000102796 2.44993e-08 -3.60835e-05
1.64844 0.0078125 0.000102848 2.63686e-08 -3.74353e-05
1.66406 0.0078125 0.000102898 2.80986e-08 -3.87896e-05
1.67969 0.0078125 0.000102946 2.96981e-08 -4.01462e-05
1.69531 0.0078125 0.000102993 3.11757e-08 -4.15049e-05
1.71094 0.0078125 0.000103038 3.25389e-08 -4.28656e-05
1.72656 0.0078125 0.000103081 3.37948e-08 -4.42281e-05
1.74219 0.0078125 0.000103123 3.49499e-08 -4.55924e-05
1.75781 0.0078125 0.000103164 3.60101e-08 -4.69582e-05
1.77344 0.0078125 0.000103204 3.69808e-08 -4.83256e-05
1.78906 0.0078125 0.000103243 3.78668e-08 -4.96944e-05
1.80469 0.0078125 0.000103281 3.86727e-08 -5.10645e-05
1.82031 0.0078125 0.000103319 3.94024e-08 -5.24359e-05
1.83594 0.0078125 0.000103355 4.00594e-08 -5.38085e-05
1.85156 0.0078125 0.000103391 4.0647e-08 -5.51822e-05
1.86719 0.0078125 0.000103423 4.11681e-08 -5.6557e-05
1.88281 0.0078125 0.000103381 4.16252e-08 -5.79328e-05
1.89844 0.0078125 0.000102208 4.20231e-08 -5.93097e-05
1.91406 0.0078125 8.54555e-05 4.23945e-08 -6.06875e-05
1.92969 0.0078125 -0.000114361 4.30476e-08 -6.20667e-05
1.94531 0.0078125 -0.00187437 4.60037e-08 -6.34526e-05
1.96094 0.0078125 -0.00918879 5.39736e-08 -6.48887e-05
1.97656 0.0078125 -0.018768 4.07186e-08 -6.65049e-05
1.99219 0.0078125 0.0330072 3.64863e-09 -6.8242e-05
0.0078125 0.0234375 1.0568e-06 -2.08498e-06 3.31602e-05
0.0234375 0.0234375 3.21319e-06 -3.25757e-06 3.31551e-05
0.0390625 0.0234375 5.41804e-06 -3.45144e-06 3.31429e-05
0.0546875 0.0234375 7.62488e-06 -3.46159e-06 3.31238e-05
0.0703125 0.0234375 9.82164e-06 -3.44379e-06 3.30976e-05
0.0859375 0.0234375 1.2004e-05 -3.4192e-06 3.30644e-05
0.101563 0.0234375 1.4169e-05 -3.39031e-06 3.30239e-05
0.117188 0.0234375 1.6314e-05 -3.35769e-06 3.29763e-05
0.132813 0.0234375 1.84368e-05 -3.32175e-06 3.29213e-05
0.148438 0.0234375 2.05353e-05 -3.28293e-06 3.2859e-05
0.164063 0.0234375 2.26079e-05 -3.24166e-06 3.27891e-05
0.179688 0.0234375 2.4653e-05 -3.19835e-06 3.27115e-05
0.195313 0.0234375 2.66696e-05 -3.1534e-06 3.26262e-05
0.210938 0.0234375 2.86567e-05 -3.10719e-06 3.2533e-05
0.226563 0.0234375 3.06136e-05 -3.06007e-06 3.24317e-05
0.242188 0.0234375 3.25401e-05 -3.01234e-06 3.23222e-05
0.257813 0.0234375 3.44357e-05 -2.96427e-06 3.22042e-05
0.273438 0.0234375 3.63004e-05 -2.9161e-06 3.20777e-05
0.289063 0.0234375 3.81343e-05 -2.86802e-06 3.19423e-05
0.304688 0.0234375 3.99375e-05 -2.82019e-06 3.1798e-05
0.320313 0.0234375 4.17104e-05 -2.77274e-06 3.16444e-05
0.335938 0.0234375 4.34532e-05 -2.72575e-06 3.14814e-05
0.351563 0.0234375 4.51664e-05 -2.6793e-06 3.13087e-05
0.367188 0.0234375 4.68504e-05 -2.63343e-06 3.1126e-05
0.382813 0.0234375 4.85056e-05 -2.58815e-06 3.09332e-05
0.398438 0.0234375 5.01325e-05 -2.54347e-06 3.07299e-05
0.414063 0.0234375 5.17315e-05 -2.49937e-06 3.05159e-05
0.429688 0.0234375 5.33031e-05 -2.45584e-06 3.02909e-05
0.445313 0.0234375 5.48476e-05 -2.41283e-06 3.00546e-05
0.460938 0.0234375 5.63654e-05 -2.3703e-06 2.98068e-05
0.476563 0.0234375 5.7857e-05 -2.32821e-06 2.95471e-05
0.492188 0.0234375 5.93225e-05 -2.2865e-06 2.92752e-05
0.507813 0.0234375 6.07623e-05 -2.24511e-06 2.89908e-05
0.523438 0.0234375 6.21766e-05 -2.204e-06 2.86935e-05
0.539063 0.0234375 6.35656e-05 -2.16309e-06 2.83832e-05
0.554688 0.0234375 6.49294e-05 -2.12234e-06 2.80594e-05
0.570313 0.0234375 6.62682e-05 -2.0817e-06 2.77218e-05
0.585938 0.0234375 6.75821e-05 -2.0411e-06 2.737e-05
0.601563 0.0234375 6.8871e-05 -2.00051e-06 2.70038e-05
0.617188 0.0234375 7.0135e-05 -1.95988e-06 2.66227e-05
0.632813 0.0234375 7.13741e-05 -1.91918e-06 2.62264e-05
0.648438 0.0234375 7.25883e-05 -1.87836e-06 2.58146e-05
0.664063 0.0234375 7.37775e-05 -1.83741e-06 2.53868e-05
0.679688 0.0234375 7.49416e-05 -1.7963e-06 2.49428e-05
0.695313 0.0234375 7.60804e-05 -1.755e-06 2.44822e-05
0.710938 0.0234375 7.7194e-05 -1.71351e-06 2.40046e-05
0.726563 0.0234375 7.82822e-05 -1.67182e-06 2.35097e-05
0.742188 0.0234375 7.93449e-05 -1.62991e-06 2.2997e-05
0.757813 0.0234375 8.03819e-05 -1.58778e-06 2.24664e-05
0.773438 0.0234375 8.13931e-05 -1.54543e-06 2.19174e-05
0.789063 0.0234375 8.23783e-05 -1.50286e-06 2.13497e-05
0.804688 0.0234375 8.33375e-05 -1.46008e-06 2.07629e-05
0.820313 0.0234375 8.42705e-05 -1.41709e-06 2.01568e-05
0.835938 0.0234375 8.51772e-05 -1.37389e-06 1.9531e-05
0.851563 0.0234375 8.60574e-05 -1.33051e-06 1.88852e-05
0.867188 0.0234375 8.69111e-05 -1.28697e-06 1.82191e-05
0.882813 0.0234375 8.77381e-05 -1.24329e-06 1.75325e-05
0.898438 0.0234375 8.85383e-05 -1.19949e-06 1.68251e-05
0.914063 0.0234375 8.93118e-05 -1.15562e-06 1.60966e-05
0.929688 0.0234375 9.00584e-05 -1.11171e-06 1.53469e-05
0.945313 0.0234375 9.07781e-05 -1.06782e-06 1.45757e-05
0.960938 0.0234375 9.1471e-05 -1.024e-06 1.3783e-05
0.976563 0.0234375 9.21371e-05 -9.80314e-07 1.29686e-05
0.992188 0.0234375 9.27766e-05 -9.36828e-07 1.21325e-05
1.00781 0.0234375 9.33895e-05 -8.93617e-07 1.12746e-05
1.02344 0.0234375 9.39761e-05 -8.50757e-07 1.03951e-05
1.03906 0.0234375 9.45367e-05 -8.0833e-07 9.49385e-06
1.05469 0.0234375 9.50715e-05 -7.66421e-07 8.57115e-06
1.07031 0.0234375 9.55809e-05 -7.25116e-07 7.62716e-06
1.08594 0.0234375 9.60653e-05 -6.845e-07 6.66211e-06
1.10156 0.0234375 9.65252e-05 -6.44659e-07 5.67631e-06
1.11719 0.0234375 9.69611e-05 -6.05677e-07 4.67012e-06
1.13281 0.0234375 9.73736e-05 -5.67634e-07 3.64395e-06
1.14844 0.0234375 9.77634e-05 -5.30605e-07 2.59826e-06
1.16406 0.0234375 9.81311e-05 -4.94662e-07 1.53356e-06
1.17969 0.0234375 9.84775e-05 -4.59867e-07 4.50407e-07
1.19531 0.0234375 9.88032e-05 -4.26276e-07 -6.50615e-07
1.21094 0.0234375 9.91092e-05 -3.93936e-07 -1.76887e-06
1.22656 0.0234375 9.93963e-05 -3.62886e-07 -2.90371e-06
1.24219 0.0234375 9.96652e-05 -3.33154e-07 -4.05445e-06
1.25781 0.0234375 9.99169e-05 -3.04761e-07 -5.22038e-06
1.27344 0.0234375 0.000100152 -2.77714e-07 -6.4008e-06
1.28906 0.0234375 0.000100372 -2.52016e-07 -7.59498e-06
1.30469 0.0234375 0.000100577 -2.27657e-07 -8.80222e-06
1.32031 0.0234375 0.000100769 -2.0462e-07 -1.00218e-05
1.33594 0.0234375 0.000100947 -1.82883e-07 -1.1253e-05
1.35156 0.0234375 0.000101114 -1.62414e-07 -1.24952e-05
1.36719 0.0234375 0.000101269 -1.43176e-07 -1.37476e-05
1.38281 0.0234375 0.000101413 -1.2513e-07 -1.50096e-05
1.39844 0.0234375 0.000101548 -1.08229e-07 -1.62806e-05
1.41406 0.0234375 0.000101674 -9.24263e-08 -1.756e-05
1.42969 0.0234375 0.000101791 -7.76716e-08 -1.88473e-05
1.44531 0.0234375 0.000101901 -6.39137e-08 -2.01417e-05
1.46094 0.0234375 0.000102003 -5.11008e-08 -2.1443e-05
1.47656 0.0234375 0.000102099 -3.91812e-08 -2.27505e-05
1.49219 0.0234375 0.000102189 -2.81036e-08 -2.40638e-05
1.50781 0.0234375 0.000102274 -1.7818e-08 -2.53824e-05
1.52344 0.0234375 0.000102353 -8.27557e-09 -2.67061e-05
1.53906 0.0234375 0.000102428 5.70742e-10 -2.80343e-05
1.55469 0.0234375 0.000102498 8.766e-09 -2.93668e-05
1.57031 0.0234375 0.000102565 1.63532e-08 -3.07032e-05
1.58594 0.0234375 0.000102628 2.33731e-08 -3.20432e-05
1.60156 0.0234375 0.000102688 2.98643e-08 -3.33866e-05
1.61719 0.0234375 0.000102745 3.58628e-08 -3.47331e-05
1.63281 0.0234375 0.0001028 4.14025e-08 -3.60825e-05
1.64844 0.0234375 0.000102852 4.65151e-08 -3.74345e-05
1.66406 0.0234375 0.000102902 5.123e-08 -3.8789e-05
1.67969 0.0234375 0.00010295 5.55744e-08 -4.01457e-05
1.69531 0.0234375 0.000102996 5.95734e-08 -4.15046e-05
1.71094 0.0234375 0.00010304 6.32502e-08 -4.28654e-05
1.72656 0.0234375 0.000103084 6.66263e-08 -4.42281e-05
1.74219 0.0234375 0.000103126 6.97211e-08 -4.55925e-05
1.75781 0.0234375 0.000103166 7.25524e-08 -4.69585e-05
1.77344 0.0234375 0.000103206 7.51367e-08 -4.8326e-05
1.78906 0.0234375 0.000103245 7.74886e-08 -4.96949e-05
1.80469 0.0234375 0.000103283 7.96215e-08 -5.10651e-05
1.82031 0.0234375 0.00010332 8.15475e-08 -5.24365e-05
1.83594 0.0234375 0.000103357 8.32774e-08 -5.38092e-05
1.85156 0.0234375 0.000103393 8.48209e-08 -5.5183e-05
1.86719 0.0234375 0.000103424 8.61866e-08 -5.65578e-05
1.88281 0.0234375 0.000103382 8.73823e-08 -5.79337e-05
1.89844 0.0234375 0.000102209 8.84201e-08 -5.93106e-05
1.91406 0.0234375 8.54559e-05 8.93741e-08 -6.06884e-05
1.92969 0.0234375 -0.000114363 9.0924e-08 -6.20677e-05
1.94531 0.0234375 -0.00187438 9.75122e-08 -6.34536e-05
1.96094 0.0234375 -0.00918883 1.15059e-07 -6.48897e-05
1.97656 0.0234375 -0.018768 8.58186e-08 -6.65059e-05
1.99219 0.0234375 0.0330071 5.9711e-09 -6.82431e-05
0.0078125 0.0390625 1.0604e-06 -3.42948e-06 3.31767e-05
0.0234375 0.0390625 3.22384e-06 -5.36899e-06 3.31716e-05
0.0390625 0.0390625 5.43545e-06 -5.69033e-06 3.31595e-05
0.0546875 0.0390625 7.64877e-06 -5.70708e-06 3.31404e-05
0.0703125 0.0390625 9.85166e-06 -5.6774e-06 3.31143e-05
0.0859375 0.0390625 1.20397e-05 -5.63638e-06 3.30812e-05
0.101563 0.0390625 1.42099e-05 -5.58819e-06 3.30409e-05
0.117188 0.0390625 1.63596e-05 -5.53379e-06 3.29934e-05
0.132813 0.0390625 1.84865e-05 -5.47388e-06 3.29386e-05
0.148438 0.0390625 2.05886e-05 -5.40921e-06 3.28765e-05
0.164063 0.0390625 2.26641e-05 -5.34049e-06 3.28068e-05
0.179688 0.0390625 2.47117e-05 -5.26843e-06 3.27295e-05
0.195313 0.0390625 2.67301e-05 -5.1937e-06 3.26444e-05
0.210938 0.0390625 2.87187e-05 -5.11694e-06 3.25515e-05
0.226563 0.0390625 3.06766e-05 -5.03873e-06 3.24505e-05
0.242188 0.0390625 3.26036e-05 -4.95958e-06 3.23413e-05
0.257813 0.0390625 3.44995e-05 -4.87995e-06 3.22237e-05
0.273438 0.0390625 3.63642e-05 -4.80022e-06 3.20975e-05
0.289063 0.0390625 3.81979e-05 -4.72071e-06 3.19625e-05
0.304688 0.0390625 4.00007e-05 -4.64169e-06 3.18186e-05
0.320313 0.0390625 4.17729e-05 -4.56336e-06 3.16654e-05
0.335938 0.0390625 4.35151e-05 -4.48588e-06 3.15028e-05
0.351563 0.0390625 4.52275e-05 -4.40934e-06 3.13306e-05
0.367188 0.0390625 4.69107e-05 -4.33381e-06 3.11484e-05
0.382813 0.0390625 4.85651e-05 -4.25933e-06 3.09561e-05
0.398438 0.0390625 5.01912e-05 -4.18589e-06 3.07533e-05
0.414063 0.0390625 5.17894e-05 -4.11346e-06 3.05398e-05
0.429688 0.0390625 5.33603e-05 -4.04201e-06 3.03153e-05
0.445313 0.0390625 5.49041e-05 -3.97146e-06 3.00796e-05
0.460938 0.0390625 5.64213e-05 -3.90175e-06 2.98323e-05
0.476563 0.0390625 5.79123e-05 -3.8328e-06 2.95731e-05
0.492188 0.0390625 5.93774e-05 -3.76451e-06 2.93018e-05
0.507813 0.0390625 6.08167e-05 -3.69678e-06 2.9018e-05
0.523438 0.0390625 6.22307e-05 -3.62953e-06 2.87214e-05
0.539063 0.0390625 6.36194e-05 -3.56265e-06 2.84117e-05
0.554688 0.0390625 6.49831e-05 -3.49604e-06 2.80885e-05
0.570313 0.0390625 6.63218e-05 -3.42963e-06 2.77515e-05
0.585938 0.0390625 6.76356e-05 -3.36332e-06 2.74004e-05
0.601563 0.0390625 6.89245e-05 -3.29702e-06 2.70348e-05
0.617188 0.0390625 7.01886e-05 -3.23068e-06 2.66543e-05
0.632813 0.0390625 7.14279e-05 -3.16422e-06 2.62587e-05
0.648438 0.0390625 7.26422e-05 -3.09759e-06 2.58475e-05
0.664063 0.0390625 7.38316e-05 -3.03074e-06 2.54205e-05
0.679688 0.0390625 7.49959e-05 -2.96363e-06 2.49771e-05
0.695313 0.0390625 7.6135e-05 -2.89623e-06 2.45172e-05
0.710938 0.0390625 7.72489e-05 -2.82852e-06 2.40402e-05
0.726563 0.0390625 7.83373e-05 -2.76047e-06 2.35459e-05
0.742188 0.0390625 7.94003e-05 -2.69207e-06 2.3034e-05
0.757813 0.0390625 8.04375e-05 -2.62331e-06 2.25039e-05
0.773438 0.0390625 8.1449e-05 -2.55419e-06 2.19556e-05
0.789063 0.0390625 8.24346e-05 -2.48471e-06 2.13885e-05
0.804688 0.0390625 8.33941e-05 -2.41488e-06 2.08023e-05
0.820313 0.0390625 8.43273e-05 -2.3447e-06 2.01967e-05
0.835938 0.0390625 8.52343e-05 -2.27418e-06 1.95715e-05
0.851563 0.0390625 8.61147e-05 -2.20337e-06 1.89262e-05
0.867188 0.0390625 8.69686e-05 -2.13227e-06 1.82606e-05
0.882813 0.0390625 8.77958e-05 -2.06094e-06 1.75745e-05
0.898438 0.0390625 8.85961e-05 -1.98941e-06 1.68674e-05
0.914063 0.0390625 8.93696e-05 -1.91775e-06 1.61393e-05
0.929688 0.0390625 9.01163e-05 -1.84604e-06 1.53899e-05
0.945313 0.0390625 9.08359e-05 -1.77434e-06 1.46189e-05
0.960938 0.0390625 9.15287e-05 -1.70275e-06 1.38264e-05
0.976563 0.0390625 9.21946e-05 -1.63137e-06 1.3012e-05
0.992188 0.0390625 9.28337e-05 -1.56033e-06 1.21759e-05
1.00781 0.0390625 9.34463e-05 -1.48973e-06 1.13179e-05
1.02344 0.0390625 9.40324e-05 -1.4197e-06 1.04381e-05
1.03906 0.0390625 9.45923e-05 -1.3504e-06 9.53656e-06
1.05469 0.0390625 9.51263e-05 -1.28194e-06 8.61342e-06
1.07031 0.0390625 9.56349e-05 -1.21449e-06 7.66887e-06
1.08594 0.0390625 9.61183e-05 -1.14818e-06 6.70317e-06
1.10156 0.0390625 9.65771e-05 -1.08315e-06 5.7166e-06
1.11719 0.0390625 9.70118e-05 -1.01955e-06 4.70954e-06
1.13281 0.0390625 9.74231e-05 -9.57515e-07 3.6824e-06
1.14844 0.0390625 9.78115e-05 -8.97163e-07 2.63564e-06
1.16406 0.0390625 9.81777e-05 -8.38616e-07 1.56978e-06
1.17969 0.0390625 9.85225e-05 -7.81978e-07 4.85392e-07
1.19531 0.0390625 9.88466e-05 -7.27344e-07 -6.16933e-07
1.21094 0.0390625 9.91509e-05 -6.74792e-07 -1.73655e-06
1.22656 0.0390625 9.94362e-05 -6.24386e-07 -2.8728e-06
1.24219 0.0390625 9.97034e-05 -5.76172e-07 -4.02498e-06
1.25781 0.0390625 9.99533e-05 -5.30182e-07 -5.19238e-06
1.27344 0.0390625 0.000100187 -4.86432e-07 -6.37427e-06
1.28906 0.0390625 0.000100405 -4.44921e-07 -7.56994e-06
1.30469 0.0390625 0.000100608 -4.05633e-07 -8.77865e-06
1.32031 0.0390625 0.000100798 -3.6854e-07 -9.99968e-06
1.33594 0.0390625 0.000100975 -3.33599e-07 -1.12323e-05
1.35156 0.0390625 0.00010114 -3.00758e-07 -1.24758e-05
1.36719 0.0390625 0.000101293 -2.69955e-07 -1.37296e-05
1.38281 0.0390625 0.000101436 -2.41119e-07 -1.49929e-05
1.39844 0.0390625 0.000101569 -2.14174e-07 -1.62652e-05
1.41406 0.0390625 0.000101694 -1.89039e-07 -1.75458e-05
1.42969 0.0390625 0.00010181 -1.6563e-07 -1.88342e-05
1.44531 0.0390625 0.000101918 -1.43858e-07 -2.01297e-05
1.46094 0.0390625 0.000102019 -1.23637e-07 -2.1432e-05
1.47656 0.0390625 0.000102114 -1.04879e-07 -2.27404e-05
1.49219 0.0390625 0.000102203 -8.74983e-08 -2.40546e-05
1.50781 0.0390625 0.000102286 -7.14099e-08 -2.53741e-05
1.52344 0.0390625 0.000102365 -5.65317e-08 -2.66985e-05
1.53906 0.0390625 0.000102439 -4.27847e-08 -2.80275e-05
1.55469 0.0390625 0.000102508 -3.00931e-08 -2.93607e-05
1.57031 0.0390625 0.000102574 -1.83845e-08 -3.06977e-05
1.58594 0.0390625 0.000102637 -7.59069e-09 -3.20383e-05
1.60156 0.0390625 0.000102696 2.3531e-09 -3.33822e-05
1.61719 0.0390625 0.000102752 1.15075e-08 -3.47292e-05
1.63281 0.0390625 0.000102806 1.99294e-08 -3.6079e-05
1.64844 0.0390625 0.000102858 2.76717e-08 -3.74315e-05
1.66406 0.0390625 0.000102907 3.47836e-08 -3.87863e-05
1.67969 0.0390625 0.000102955 4.13109e-08 -4.01435e-05
1.69531 0.0390625 0.000103001 4.72956e-08 -4.15026e-05
1.71094 0.0390625 0.000103045 5.27767e-08 -4.28638e-05
1.72656 0.0390625 0.000103088 5.77898e-08 -4.42267e-05
1.74219 0.0390625 0.000103129 6.23677e-08 -4.55914e-05
1.75781 0.0390625 0.00010317 6.65402e-08 -4.69576e-05
1.77344 0.0390625 0.000103209 7.03347e-08 -4.83253e-05
1.78906 0.0390625 0.000103248 7.37759e-08 -4.96943e-05
1.80469 0.0390625 0.000103286 7.68861e-08 -5.10647e-05
1.82031 0.0390625 0.000103323 7.96855e-08 -5.24363e-05
1.83594 0.0390625 0.000103359 8.21923e-08 -5.38091e-05
1.85156 0.0390625 0.000103394 8.44227e-08 -5.5183e-05
1.86719 0.0390625 0.000103425 8.63909e-08 -5.65579e-05
1.88281 0.0390625 0.000103384 8.81099e-08 -5.79339e-05
1.89844 0.0390625 0.00010221 8.95968e-08 -5.93108e-05
1.91406 0.0390625 8.54569e-05 9.09355e-08 -6.06887e-05
1.92969 0.0390625 -0.000114363 9.28675e-08 -6.20681e-05
1.94531 0.0390625 -0.00187439 1.00207e-07 -6.3454e-05
1.96094 0.0390625 -0.00918884 1.19319e-07 -6.48901e-05
1.97656 0.0390625 -0.018768 8.75126e-08 -6.65064e-05
1.99219 0.0390625 0.0330071 3.33329e-09 -6.82436e-05
0.0078125 0.0546875 1.06579e-06 -4.77157e-06 3.32005e-05
0.0234375 0.0546875 3.23982e-06 -7.47832e-06 3.31954e-05
0.0390625 0.0546875 5.46166e-06 -7.92719e-06 3.31834e-05
0.0546875 0.0546875 7.68478e-06 -7.95025e-06 3.31644e-05
0.0703125 0.0546875 9.89692e-06 -7.90823e-06 3.31385e-05
0.0859375 0.0546875 1.20936e-05 -7.85025e-06 3.31055e-05
0.101563 0.0546875 1.42716e-05 -7.78217e-06 3.30654e-05
0.117188 0.0546875 1.64283e-05 -7.70534e-06 3.30182e-05
0.132813 0.0546875 1.85613e-05 -7.62082e-06 3.29637e-05
0.148438 0.0546875 2.06687e-05 -7.52964e-06 3.29018e-05
0.164063 0.0546875 2.27486e-05 -7.43285e-06 3.28325e-05
0.179688 0.0546875 2.47998e-05 -7.33144e-06 3.27555e-05
0.195313 0.0546875 2.6821e-05 -7.2264e-06 3.26709e-05
0.210938 0.0546875 2.88116e-05 -7.11861e-06 3.25784e-05
0.226563 0.0546875 3.0771e-05 -7.0089e-06 3.24778e-05
0.242188 0.0546875 3.26988e-05 -6.89799e-06 3.23691e-05
0.257813 0.0546875 3.4595e-05 -6.78651e-06 3.2252e-05
0.273438 0.0546875 3.64596e-05 -6.67501e-06 3.21264e-05
0.289063 0.0546875 3.82928e-05 -6.56394e-06 3.1992e-05
0.304688 0.0546875 4.00948e-05 -6.45366e-06 3.18487e-05
0.320313 0.0546875 4.18662e-05 -6.34443e-06 3.16962e-05
0.335938 0.0546875 4.36072e-05 -6.23647e-06 3.15343e-05
0.351563 0.0546875 4.53184e-05 -6.12992e-06 3.13627e-05
0.367188 0.0546875 4.70004e-05 -6.02486e-06 3.11813e-05
0.382813 0.0546875 4.86535e-05 -5.92132e-06 3.09897e-05
0.398438 0.0546875 5.02783e-05 -5.81929e-06 3.07877e-05
0.414063 0.0546875 5.18754e-05 -5.71874e-06 3.0575e-05
0.429688 0.0546875 5.3445e-05 -5.61959e-06 3.03513e-05
0.445313 0.0546875 5.49878e-05 -5.52175e-06 3.01164e-05
0.460938 0.0546875 5.65041e-05 -5.42512e-06 2.98699e-05
0.476563 0.0546875 5.79942e-05 -5.32956e-06 2.96116e-05
0.492188 0.0546875 5.94585e-05 -5.23496e-06 2.93412e-05
0.507813 0.0546875 6.08973e-05 -5.14117e-06 2.90583e-05
0.523438 0.0546875 6.23107e-05 -5.04806e-06 2.87626e-05
0.539063 0.0546875 6.3699e-05 -4.95549e-06 2.84538e-05
0.554688 0.0546875 6.50624e-05 -4.86331e-06 2.81316e-05
0.570313 0.0546875 6.64009e-05 -4.77141e-06 2.77956e-05
0.585938 0.0546875 6.77146e-05 -4.67966e-06 2.74454e-05
0.601563 0.0546875 6.90036e-05 -4.58794e-06 2.70808e-05
0.617188 0.0546875 7.02678e-05 -4.49615e-06 2.67014e-05
0.632813 0.0546875 7.15072e-05 -4.40419e-06 2.63068e-05
0.648438 0.0546875 7.27218e-05 -4.312e-06 2.58966e-05
0.664063 0.0546875 7.39114e-05 -4.2195e-06 2.54705e-05
0.679688 0.0546875 7.5076e-05 -4.12664e-06 2.50282e-05
0.695313 0.0546875 7.62155e-05 -4.03338e-06 2.45692e-05
0.710938 0.0546875 7.73298e-05 -3.93967e-06 2.40933e-05
0.726563 0.0546875 7.84187e-05 -3.84549e-06 2.36e-05
0.742188 0.0546875 7.9482e-05 -3.75083e-06 2.3089e-05
0.757813 0.0546875 8.05197e-05 -3.65567e-06 2.256e-05
0.773438 0.0546875 8.15317e-05 -3.56e-06 2.20125e-05
0.789063 0.0546875 8.25176e-05 -3.46383e-06 2.14463e-05
0.804688 0.0546875 8.34775e-05 -3.36716e-06 2.08611e-05
0.820313 0.0546875 8.44112e-05 -3.27e-06 2.02564e-05
0.835938 0.0546875 8.53185e-05 -3.17238e-06 1.9632e-05
0.851563 0.0546875 8.61993e-05 -3.07432e-06 1.89876e-05
0.867188 0.0546875 8.70535e-05 -2.97586e-06 1.83227e-05
0.882813 0.0546875 8.78809e-05 -2.87706e-06 1.76373e-05
0.898438 0.0546875 8.86815e-05 -2.77798e-06 1.69309e-05
0.914063 0.0546875 8.94551e-05 -2.6787e-06 1.62033e-05
0.929688 0.0546875 9.02018e-05 -2.57932e-06 1.54543e-05
0.945313 0.0546875 9.09214e-05 -2.47995e-06 1.46838e-05
0.960938 0.0546875 9.1614e-05 -2.38071e-06 1.38915e-05
0.976563 0.0546875 9.22795e-05 -2.28177e-06 1.30773e-05
0.992188 0.0546875 9.29182e-05 -2.18326e-06 1.22411e-05
1.00781 0.0546875 9.35301e-05 -2.08538e-06 1.13829e-05
1.02344 0.0546875 9.41155e-05 -1.98828e-06 1.05028e-05
1.03906 0.0546875 9.46745e-05 -1.89218e-06 9.6008e-06
1.05469 0.0546875 9.52074e-05 -1.79727e-06 8.67703e-06
1.07031 0.0546875 9.57146e-05 -1.70375e-06 7.73168e-06
1.08594 0.0546875 9.61966e-05 -1.61182e-06 6.765e-06
1.10156 0.0546875 9.66538e-05 -1.5217e-06 5.7773e-06
1.11719 0.0546875 9.70868e-05 -1.43357e-06 4.76894e-06
1.13281 0.0546875 9.7496e-05 -1.34763e-06 3.74035e-06
1.14844 0.0546875 9.78823e-05 -1.26406e-06 2.69199e-06
1.16406 0.0546875 9.82463e-05 -1.18302e-06 1.62441e-06
1.17969 0.0546875 9.85888e-05 -1.10466e-06 5.38176e-07
1.19531 0.0546875 9.89104e-05 -1.02912e-06 -5.66098e-07
1.21094 0.0546875 9.92122e-05 -9.56499e-07 -1.68776e-06
1.22656 0.0546875 9.94949e-05 -8.86897e-07 -2.82611e-06
1.24219 0.0546875 9.97594e-05 -8.20377e-07 -3.98045e-06
1.25781 0.0546875 0.000100007 -7.56981e-07 -5.15005e-06
1.27344 0.0546875 0.000100238 -6.96729e-07 -6.33416e-06
1.28906 0.0546875 0.000100453 -6.3962e-07 -7.53204e-06
1.30469 0.0546875 0.000100654 -5.85629e-07 -8.74295e-06
1.32031 0.0546875 0.000100841 -5.34714e-07 -9.96615e-06
1.33594 0.0546875 0.000101015 -4.86813e-07 -1.12009e-05
1.35156 0.0546875 0.000101177 -4.4185e-07 -1.24465e-05
1.36719 0.0546875 0.000101328 -3.99736e-07 -1.37023e-05
1.38281 0.0546875 0.000101469 -3.60369e-07 -1.49676e-05
1.39844 0.0546875 0.0001016 -3.23639e-07 -1.62417e-05
1.41406 0.0546875 0.000101723 -2.89431e-07 -1.75241e-05
1.42969 0.0546875 0.000101837 -2.57624e-07 -1.88141e-05
1.44531 0.0546875 0.000101943 -2.28093e-07 -2.01113e-05
1.46094 0.0546875 0.000102042 -2.00715e-07 -2.1415e-05
1.47656 0.0546875 0.000102136 -1.75366e-07 -2.27249e-05
1.49219 0.0546875 0.000102223 -1.51922e-07 -2.40404e-05
1.50781 0.0546875 0.000102305 -1.30265e-07 -2.53612e-05
1.52344 0.0546875 0.000102382 -1.10278e-07 -2.66867e-05
1.53906 0.0546875 0.000102454 -9.185e-08 -2.80168e-05
1.55469 0.0546875 0.000102523 -7.48739e-08 -2.93509e-05
1.57031 0.0546875 0.000102587 -5.92481e-08 -3.06889e-05
1.58594 0.0546875 0.000102649 -4.48761e-08 -3.20304e-05
1.60156 0.0546875 0.000102707 -3.16671e-08 -3.33751e-05
1.61719 0.0546875 0.000102763 -1.9536e-08 -3.47228e-05
1.63281 0.0546875 0.000102816 -8.40292e-09 -3.60733e-05
1.64844 0.0546875 0.000102867 1.8064e-09 -3.74264e-05
1.66406 0.0546875 0.000102915 1.1161e-08 -3.87818e-05
1.67969 0.0546875 0.000102962 1.97249e-08 -4.01394e-05
1.69531 0.0546875 0.000103007 2.7557e-08 -4.14991e-05
1.71094 0.0546875 0.000103051 3.47119e-08 -4.28606e-05
1.72656 0.0546875 0.000103093 4.12394e-08 -4.4224e-05
1.74219 0.0546875 0.000103134 4.71855e-08 -4.5589e-05
1.75781 0.0546875 0.000103174 5.25917e-08 -4.69555e-05
1.77344 0.0546875 0.000103213 5.74964e-08 -4.83235e-05
1.78906 0.0546875 0.000103252 6.1934e-08 -4.96928e-05
1.80469 0.0546875 0.000103289 6.59358e-08 -5.10634e-05
1.82031 0.0546875 0.000103326 6.95301e-08 -5.24352e-05
1.83594 0.0546875 0.000103362 7.27421e-08 -5.38082e-05
1.85156 0.0546875 0.000103397 7.55944e-08 -5.51823e-05
1.86719 0.0546875 0.000103427 7.81071e-08 -5.65574e-05
1.88281 0.0546875 0.000103386 8.02982e-08 -5.79335e-05
1.89844 0.0546875 0.000102212 8.21888e-08 -5.93105e-05
1.91406 0.0546875 8.54582e-05 8.38651e-08 -6.06885e-05
1.92969 0.0546875 -0.000114362 8.60538e-08 -6.20679e-05
1.94531 0.0546875 -0.00187439 9.34461e-08 -6.34539e-05
1.96094 0.0546875 -0.00918884 1.12223e-07 -6.48901e-05
1.97656 0.0546875 -0.018768 8.12022e-08 -6.65064e-05
1.99219 0.0546875 0.0330071 7.75906e-10 -6.82435e-05
0.0078125 0.0703125 1.07305e-06 -6.1184e-06 3.32316e-05
0.0234375 0.0703125 3.26139e-06 -9.59705e-06 3.32266e-05
0.0390625 0.0703125 5.49707e-06 -1.01742e-05 3.32146e-05
0.0546875 0.0703125 7.73344e-06 -1.02031e-05 3.31958e-05
0.0703125 0.0703125 9.95807e-06 -1.01481e-05 3.317e-05
0.0859375 0.0703125 1.21663e-05 -1.00723e-05 3.31373e-05
0.101563 0.0703125 1.43548e-05 -9.98337e-06 3.30975e-05
0.117188 0.0703125 1.65209e-05 -9.88313e-06 3.30506e-05
0.132813 0.0703125 1.86622e-05 -9.77296e-06 3.29964e-05
0.148438 0.0703125 2.07765e-05 -9.65425e-06 3.2935e-05
0.164063 0.0703125 2.28623e-05 -9.52837e-06 3.28661e-05
0.179688 0.0703125 2.49181e-05 -9.39667e-06 3.27897e-05
0.195313 0.0703125 2.6943e-05 -9.26043e-06 3.27055e-05
0.210938 0.0703125 2.89362e-05 -9.12081e-06 3.26136e-05
0.226563 0.0703125 3.08973e-05 -8.97888e-06 3.25137e-05
0.242188 0.0703125 3.2826e-05 -8.83558e-06 3.24056e-05
0.257813 0.0703125 3.47225e-05 -8.69175e-06 3.22893e-05
0.273438 0.0703125 3.65868e-05 -8.54805e-06 3.21644e-05